Formula,Original database,Space group,PBE bandgap,HSE06 bandgap,asr_id/material_id
RhI2,c2db,P -3 m 1,0.0,,1f1223669a0304da63f27a56fddf12a4
NbSe3,2dmatpedia,P -1,0.0,,2dm-1518
NbTe3,2dmatpedia,P -1,0.0,,2dm-1869
YTe,2dmatpedia,P 4/n m m,0.0,,2dm-2422